                         Program Version 5.0.4 -  RELEASE  -
|  1> ! wB97X-D3 def2-SV(P) def2/J RIJCOSX noautostart miniprint
|  2> %maxcore     8000
|  3> %pal nprocs   4 end
|  4> %cpcm
|  5> smd true
|  6> SMDsolvent "water"
|  7> end
|  8> %tddft
|  9>   Mode sTDDFT
| 10>   Ethresh 7.0
| 11>   PThresh 1e-4
| 12>   PTLimit 30
| 13>   triplets false
| 14>   maxcore 8000
| 15> end
| 16> * xyz   0   1
| 17> H     14.61100000   -0.97400000   -0.76400000
| 18> C     14.14600000   -1.48700000    0.11800000
| 19> H     14.92300000   -2.16700000    0.55500000
| 20> C     13.73200000   -0.46100000    1.14600000
| 21> H     14.63000000    0.11800000    1.48900000
| 22> H     13.30700000   -0.98500000    2.04200000
| 23> C     12.68800000    0.51500000    0.59700000
| 24> C     13.35900000    1.50500000   -0.35000000
| 25> H     12.62700000    2.27200000   -0.69800000
| 26> H     13.77000000    0.97600000   -1.24300000
| 27> H     14.19500000    2.02700000    0.17400000
| 28> C     12.10300000    1.28600000    1.77900000
| 29> H     12.92600000    1.76600000    2.36100000
| 30> H     11.54200000    0.59700000    2.45300000
| 31> H     11.40700000    2.08200000    1.42300000
| 32> C     11.59000000   -0.22000000   -0.13700000
| 33> C     11.73200000   -1.48900000   -0.57700000
| 34> C     12.95600000   -2.30400000   -0.33400000
| 35> H     13.22800000   -2.86400000   -1.26900000
| 36> H     12.70700000   -3.07200000    0.45000000
| 37> C     10.67500000   -2.21100000   -1.32800000
| 38> H     10.06600000   -2.83300000   -0.62400000
| 39> H     11.12600000   -2.89300000   -2.09100000
| 40> H      9.98700000   -1.50400000   -1.85500000
| 41> C     10.38600000    0.57300000   -0.36300000
| 42> H     10.57500000    1.59700000   -0.73200000
| 43> C      9.13600000    0.14100000   -0.13000000
| 44> H      8.97100000   -0.88200000    0.25500000
| 45> C      7.93000000    0.93200000   -0.34000000
| 46> C      8.11600000    2.34900000   -0.73700000
| 47> H      8.80500000    2.86000000   -0.01800000
| 48> H      7.15600000    2.91700000   -0.75300000
| 49> H      8.57100000    2.40200000   -1.75800000
| 50> C      6.72400000    0.34300000   -0.16700000
| 51> H      6.69400000   -0.72000000    0.14000000
| 52> C      5.43400000    0.96100000   -0.34700000
| 53> H      5.41500000    2.00800000   -0.69500000
| 54> C      4.28500000    0.29800000   -0.11300000
| 55> H      4.31900000   -0.75200000    0.23300000
| 56> C      2.95100000    0.85400000   -0.28100000
| 57> C      2.86000000    2.26900000   -0.71300000
| 58> H      3.40400000    2.92600000    0.01200000
| 59> H      1.80600000    2.63000000   -0.77900000
| 60> H      3.33400000    2.39200000   -1.72000000
| 61> C      1.87900000    0.06300000   -0.03800000
| 62> H      2.05500000   -0.98000000    0.28700000
| 63> C      0.49200000    0.43500000   -0.16000000
| 64> H      0.26200000    1.45300000   -0.51700000
| 65> C     -0.51100000   -0.41600000    0.14400000
| 66> H     -0.27800000   -1.43400000    0.50000000
| 67> C     -1.89900000   -0.05100000    0.01700000
| 68> H     -2.08100000    0.96500000   -0.38400000
| 69> C     -2.96500000   -0.82100000    0.33700000
| 70> C     -2.86600000   -2.19300000    0.89000000
| 71> H     -3.37700000   -2.24300000    1.88400000
| 72> H     -3.36600000   -2.92000000    0.20100000
| 73> H     -1.80900000   -2.52300000    1.03100000
| 74> C     -4.30400000   -0.28700000    0.13400000
| 75> H     -4.34800000    0.73800000   -0.27600000
| 76> C     -5.44600000   -0.94800000    0.40700000
| 77> H     -5.41600000   -1.97000000    0.81900000
| 78> C     -6.74500000   -0.36100000    0.18300000
| 79> H     -6.73100000    0.67800000   -0.19900000
| 80> C     -7.94000000   -0.95700000    0.40100000
| 81> C     -8.09900000   -2.34400000    0.90000000
| 82> H     -7.14200000   -2.91800000    0.87300000
| 83> H     -8.84600000   -2.89600000    0.27500000
| 84> H     -8.46900000   -2.32800000    1.95700000
| 85> C     -9.16100000   -0.20500000    0.13800000
| 86> H     -9.02000000    0.76700000   -0.37000000
| 87> C    -10.39700000   -0.61200000    0.46800000
| 88> H    -10.55900000   -1.57800000    0.97700000
| 89> C    -11.61200000    0.14800000    0.18500000
| 90> C    -12.69300000   -0.63000000   -0.52800000
| 91> C    -12.24600000   -0.89000000   -1.96500000
| 92> H    -12.99300000   -1.53500000   -2.48600000
| 93> H    -11.25700000   -1.40800000   -1.97100000
| 94> H    -12.14800000    0.07100000   -2.52400000
| 95> C    -12.93300000   -1.97300000    0.15800000
| 96> H    -12.08800000   -2.67600000   -0.04000000
| 97> H    -13.87000000   -2.43700000   -0.23600000
| 98> H    -13.03800000   -1.83600000    1.26000000
| 99> C    -14.02600000    0.12700000   -0.53400000
|100> H    -14.69900000   -0.33000000   -1.30600000
|101> H    -14.52200000    0.00000000    0.46500000
|102> C    -13.85200000    1.60000000   -0.81500000
|103> H    -14.85400000    2.10300000   -0.83000000
|104> H    -13.38900000    1.74500000   -1.82700000
|105> C    -12.97900000    2.23800000    0.24300000
|106> H    -12.68800000    3.27200000   -0.08400000
|107> H    -13.56200000    2.34400000    1.19900000
|108> C    -11.74900000    1.44700000    0.52800000
|109> C    -10.70200000    2.21600000    1.24500000
|110> H    -11.17000000    2.92300000    1.97500000
|111> H    -10.10400000    2.81700000    0.51400000
|112> H    -10.00200000    1.54500000    1.80200000
|113> *
|114>
|115>                          ****END OF INPUT****

CARTESIAN COORDINATES (ANGSTROEM)
---------------------------------
  H     14.611000   -0.974000   -0.764000
  C     14.146000   -1.487000    0.118000
  H     14.923000   -2.167000    0.555000
  C     13.732000   -0.461000    1.146000
  H     14.630000    0.118000    1.489000
  H     13.307000   -0.985000    2.042000
  C     12.688000    0.515000    0.597000
  C     13.359000    1.505000   -0.350000
  H     12.627000    2.272000   -0.698000
  H     13.770000    0.976000   -1.243000
  H     14.195000    2.027000    0.174000
  C     12.103000    1.286000    1.779000
  H     12.926000    1.766000    2.361000
  H     11.542000    0.597000    2.453000
  H     11.407000    2.082000    1.423000
  C     11.590000   -0.220000   -0.137000
  C     11.732000   -1.489000   -0.577000
  C     12.956000   -2.304000   -0.334000
  H     13.228000   -2.864000   -1.269000
  H     12.707000   -3.072000    0.450000
  C     10.675000   -2.211000   -1.328000
  H     10.066000   -2.833000   -0.624000
  H     11.126000   -2.893000   -2.091000
  H      9.987000   -1.504000   -1.855000
  C     10.386000    0.573000   -0.363000
  H     10.575000    1.597000   -0.732000
  C      9.136000    0.141000   -0.130000
  H      8.971000   -0.882000    0.255000
  C      7.930000    0.932000   -0.340000
  C      8.116000    2.349000   -0.737000
  H      8.805000    2.860000   -0.018000
  H      7.156000    2.917000   -0.753000
  H      8.571000    2.402000   -1.758000
  C      6.724000    0.343000   -0.167000
  H      6.694000   -0.720000    0.140000
  C      5.434000    0.961000   -0.347000
  H      5.415000    2.008000   -0.695000
  C      4.285000    0.298000   -0.113000
  H      4.319000   -0.752000    0.233000
  C      2.951000    0.854000   -0.281000
  C      2.860000    2.269000   -0.713000
  H      3.404000    2.926000    0.012000
  H      1.806000    2.630000   -0.779000
  H      3.334000    2.392000   -1.720000
  C      1.879000    0.063000   -0.038000
  H      2.055000   -0.980000    0.287000
  C      0.492000    0.435000   -0.160000
  H      0.262000    1.453000   -0.517000
  C     -0.511000   -0.416000    0.144000
  H     -0.278000   -1.434000    0.500000
  C     -1.899000   -0.051000    0.017000
  H     -2.081000    0.965000   -0.384000
  C     -2.965000   -0.821000    0.337000
  C     -2.866000   -2.193000    0.890000
  H     -3.377000   -2.243000    1.884000
  H     -3.366000   -2.920000    0.201000
  H     -1.809000   -2.523000    1.031000
  C     -4.304000   -0.287000    0.134000
  H     -4.348000    0.738000   -0.276000
  C     -5.446000   -0.948000    0.407000
  H     -5.416000   -1.970000    0.819000
  C     -6.745000   -0.361000    0.183000
  H     -6.731000    0.678000   -0.199000
  C     -7.940000   -0.957000    0.401000
  C     -8.099000   -2.344000    0.900000
  H     -7.142000   -2.918000    0.873000
  H     -8.846000   -2.896000    0.275000
  H     -8.469000   -2.328000    1.957000
  C     -9.161000   -0.205000    0.138000
  H     -9.020000    0.767000   -0.370000
  C    -10.397000   -0.612000    0.468000
  H    -10.559000   -1.578000    0.977000
  C    -11.612000    0.148000    0.185000
  C    -12.693000   -0.630000   -0.528000
  C    -12.246000   -0.890000   -1.965000
  H    -12.993000   -1.535000   -2.486000
  H    -11.257000   -1.408000   -1.971000
  H    -12.148000    0.071000   -2.524000
  C    -12.933000   -1.973000    0.158000
  H    -12.088000   -2.676000   -0.040000
  H    -13.870000   -2.437000   -0.236000
  H    -13.038000   -1.836000    1.260000
  C    -14.026000    0.127000   -0.534000
  H    -14.699000   -0.330000   -1.306000
  H    -14.522000    0.000000    0.465000
  C    -13.852000    1.600000   -0.815000
  H    -14.854000    2.103000   -0.830000
  H    -13.389000    1.745000   -1.827000
  C    -12.979000    2.238000    0.243000
  H    -12.688000    3.272000   -0.084000
  H    -13.562000    2.344000    1.199000
  C    -11.749000    1.447000    0.528000
  C    -10.702000    2.216000    1.245000
  H    -11.170000    2.923000    1.975000
  H    -10.104000    2.817000    0.514000
  H    -10.002000    1.545000    1.802000

ORBITAL ENERGIES
----------------

  NO   OCC          E(Eh)            E(eV)
   0   2.0000     -10.299249      -280.2568
   1   2.0000     -10.299166      -280.2546
   2   2.0000     -10.297552      -280.2106
   3   2.0000     -10.297530      -280.2100
   4   2.0000     -10.291079      -280.0345
   5   2.0000     -10.290414      -280.0164
   6   2.0000     -10.289906      -280.0026
   7   2.0000     -10.289384      -279.9884
   8   2.0000     -10.288874      -279.9745
   9   2.0000     -10.288836      -279.9735
  10   2.0000     -10.288072      -279.9527
  11   2.0000     -10.287963      -279.9497
  12   2.0000     -10.287416      -279.9348
  13   2.0000     -10.287302      -279.9317
  14   2.0000     -10.285335      -279.8782
  15   2.0000     -10.285088      -279.8715
  16   2.0000     -10.284619      -279.8587
  17   2.0000     -10.284425      -279.8534
  18   2.0000     -10.284094      -279.8444
  19   2.0000     -10.284054      -279.8433
  20   2.0000     -10.283203      -279.8202
  21   2.0000     -10.282670      -279.8057
  22   2.0000     -10.278273      -279.6860
  23   2.0000     -10.278090      -279.6811
  24   2.0000     -10.277235      -279.6578
  25   2.0000     -10.277183      -279.6564
  26   2.0000     -10.276660      -279.6421
  27   2.0000     -10.276497      -279.6377
  28   2.0000     -10.275713      -279.6164
  29   2.0000     -10.275582      -279.6128
  30   2.0000     -10.271828      -279.5107
  31   2.0000     -10.271626      -279.5051
  32   2.0000     -10.270924      -279.4861
  33   2.0000     -10.270911      -279.4857
  34   2.0000     -10.269787      -279.4551
  35   2.0000     -10.269388      -279.4442
  36   2.0000     -10.268127      -279.4099
  37   2.0000     -10.267836      -279.4020
  38   2.0000     -10.267130      -279.3828
  39   2.0000     -10.267086      -279.3816
  40   2.0000      -0.968975       -26.3671
  41   2.0000      -0.968786       -26.3620
  42   2.0000      -0.953112       -25.9355
  43   2.0000      -0.948166       -25.8009
  44   2.0000      -0.938109       -25.5272
  45   2.0000      -0.932063       -25.3627
  46   2.0000      -0.905091       -24.6288
  47   2.0000      -0.897710       -24.4279
  48   2.0000      -0.897217       -24.4145
  49   2.0000      -0.890146       -24.2221
  50   2.0000      -0.882587       -24.0164
  51   2.0000      -0.865447       -23.5500
  52   2.0000      -0.852960       -23.2102
  53   2.0000      -0.829135       -22.5619
  54   2.0000      -0.825306       -22.4577
  55   2.0000      -0.807336       -21.9687
  56   2.0000      -0.789627       -21.4869
  57   2.0000      -0.789522       -21.4840
  58   2.0000      -0.783918       -21.3315
  59   2.0000      -0.781902       -21.2766
  60   2.0000      -0.780132       -21.2285
  61   2.0000      -0.779552       -21.2127
  62   2.0000      -0.772615       -21.0239
  63   2.0000      -0.771133       -20.9836
  64   2.0000      -0.770140       -20.9566
  65   2.0000      -0.737740       -20.0749
  66   2.0000      -0.719331       -19.5740
  67   2.0000      -0.701576       -19.0909
  68   2.0000      -0.684209       -18.6183
  69   2.0000      -0.669776       -18.2255
  70   2.0000      -0.663670       -18.0594
  71   2.0000      -0.658589       -17.9211
  72   2.0000      -0.645255       -17.5583
  73   2.0000      -0.644334       -17.5332
  74   2.0000      -0.633023       -17.2254
  75   2.0000      -0.630088       -17.1456
  76   2.0000      -0.622157       -16.9297
  77   2.0000      -0.609102       -16.5745
  78   2.0000      -0.598930       -16.2977
  79   2.0000      -0.595597       -16.2070
  80   2.0000      -0.585873       -15.9424
  81   2.0000      -0.578631       -15.7453
  82   2.0000      -0.573076       -15.5942
  83   2.0000      -0.570080       -15.5127
  84   2.0000      -0.564219       -15.3532
  85   2.0000      -0.557732       -15.1767
  86   2.0000      -0.552542       -15.0354
  87   2.0000      -0.549321       -14.9478
  88   2.0000      -0.543737       -14.7958
  89   2.0000      -0.539790       -14.6884
  90   2.0000      -0.536257       -14.5923
  91   2.0000      -0.528764       -14.3884
  92   2.0000      -0.521804       -14.1990
  93   2.0000      -0.520394       -14.1606
  94   2.0000      -0.519550       -14.1377
  95   2.0000      -0.518193       -14.1008
  96   2.0000      -0.515786       -14.0352
  97   2.0000      -0.515345       -14.0233
  98   2.0000      -0.513898       -13.9839
  99   2.0000      -0.513669       -13.9776
 100   2.0000      -0.512263       -13.9394
 101   2.0000      -0.508226       -13.8295
 102   2.0000      -0.495604       -13.4861
 103   2.0000      -0.491424       -13.3723
 104   2.0000      -0.490152       -13.3377
 105   2.0000      -0.488739       -13.2993
 106   2.0000      -0.484552       -13.1853
 107   2.0000      -0.483642       -13.1606
 108   2.0000      -0.481379       -13.0990
 109   2.0000      -0.478285       -13.0148
 110   2.0000      -0.476246       -12.9593
 111   2.0000      -0.474368       -12.9082
 112   2.0000      -0.470119       -12.7926
 113   2.0000      -0.462997       -12.5988
 114   2.0000      -0.462076       -12.5737
 115   2.0000      -0.457745       -12.4559
 116   2.0000      -0.454530       -12.3684
 117   2.0000      -0.453700       -12.3458
 118   2.0000      -0.452181       -12.3045
 119   2.0000      -0.451748       -12.2927
 120   2.0000      -0.446049       -12.1376
 121   2.0000      -0.440598       -11.9893
 122   2.0000      -0.440331       -11.9820
 123   2.0000      -0.437700       -11.9104
 124   2.0000      -0.435902       -11.8615
 125   2.0000      -0.433916       -11.8075
 126   2.0000      -0.431983       -11.7549
 127   2.0000      -0.429628       -11.6908
 128   2.0000      -0.428226       -11.6526
 129   2.0000      -0.427214       -11.6251
 130   2.0000      -0.426196       -11.5974
 131   2.0000      -0.422593       -11.4993
 132   2.0000      -0.421885       -11.4801
 133   2.0000      -0.418076       -11.3764
 134   2.0000      -0.402805       -10.9609
 135   2.0000      -0.401366       -10.9217
 136   2.0000      -0.398406       -10.8412
 137   2.0000      -0.396605       -10.7922
 138   2.0000      -0.388085       -10.5603
 139   2.0000      -0.380920       -10.3653
 140   2.0000      -0.375716       -10.2238
 141   2.0000      -0.373257       -10.1568
 142   2.0000      -0.360132        -9.7997
 143   2.0000      -0.331892        -9.0312
 144   2.0000      -0.316254        -8.6057
 145   2.0000      -0.298251        -8.1158
 146   2.0000      -0.272670        -7.4197
 147   2.0000      -0.242286        -6.5929
 148   0.0000      -0.020654        -0.5620
 149   0.0000       0.019309         0.5254
 150   0.0000       0.056974         1.5504
 151   0.0000       0.091460         2.4888
 152   0.0000       0.110142         2.9971

Total SCF time: 0 days 0 hours 18 min 30 sec

-----------------------------------------------------------------------------
         ABSORPTION SPECTRUM VIA TRANSITION ELECTRIC DIPOLE MOMENTS
-----------------------------------------------------------------------------
State   Energy  Wavelength   fosc         T2         TX        TY        TZ
        (cm-1)    (nm)                  (au**2)     (au)      (au)      (au)
-----------------------------------------------------------------------------
   0   23567.3    424.3   4.236094777  59.17398  -7.55967  -1.16939   0.81109
   1   33538.2    298.2   0.000632091   0.00620  -0.01700  -0.05923   0.04907
   2   37971.9    263.4   0.000066687   0.00058  -0.01855   0.01262  -0.00864
   3   40040.0    249.8   0.375305358   3.08579   0.84423  -1.53484  -0.13164
   4   43501.5    229.9   0.167111051   1.26467  -0.81774   0.74777   0.19189
   5   44108.3    226.7   0.002772889   0.02070  -0.10511   0.07917   0.05814
   6   46785.8    213.7   0.112014175   0.78820  -0.88143  -0.09385   0.04963
   7   49273.9    202.9   0.103531283   0.69172   0.41284   0.65840  -0.29630
   8   50063.4    199.7   0.001922388   0.01264  -0.08874  -0.06890  -0.00436
   9   53661.2    186.4   0.000074938   0.00046  -0.01205  -0.01055   0.01426
  10   54605.4    183.1   0.042348693   0.25532   0.12779   0.47200   0.12729
  11   54959.4    182.0   0.470829258   2.82031   0.33425   1.59636   0.40029
  12   56382.6    177.4   0.018956493   0.11068   0.30805   0.11469   0.05136

Dispersion correction           -0.043324098
FINAL SINGLE POINT ENERGY        -0.043324097660

DIPOLE MOMENT
-------------
                                X             Y             Z
Electronic contribution:     -0.40372      -0.06966       0.46240
Nuclear contribution   :      0.44025       0.09823      -0.44361
                        -----------------------------------------
Total Dipole Moment    :      0.03653       0.02857       0.01879
                        -----------------------------------------
Magnitude (a.u.)       :      0.05004
Magnitude (Debye)      :      0.12719

Rotational constants in cm-1:     0.012619     0.000331     0.000326
Rotational constants in MHz :   378.318549     9.910961     9.771867

                             ****ORCA TERMINATED NORMALLY****
TOTAL RUN TIME: 0 days 0 hours 18 minutes 46 seconds 694 msec
